Title: *** SPICE deck for cell MUL_Without_ICON{sch} from library Multp
Date: Sat Dec 01 11:27:15 2018
Plotname: Operating Point
Flags: real
No. Variables: 1818
No. Points:            1
Offset:   0.0000000000000000e+000
Command: Linear Technology Corporation LTspice IV
Variables:
	0	V(net@6)	voltage
	1	V(b0)	voltage
	2	V(net@34)	voltage
	3	V(net@583)	voltage
	4	V(a3)	voltage
	5	V(net@38)	voltage
	6	V(net@58)	voltage
	7	V(net@797)	voltage
	8	V(a2)	voltage
	9	V(net@67)	voltage
	10	V(net@87)	voltage
	11	V(net@425)	voltage
	12	V(a1)	voltage
	13	V(net@96)	voltage
	14	V(net@116)	voltage
	15	V(out0)	voltage
	16	V(a0)	voltage
	17	V(net@125)	voltage
	18	V(b1)	voltage
	19	V(net@145)	voltage
	20	V(net@273)	voltage
	21	V(net@154)	voltage
	22	V(net@174)	voltage
	23	V(net@573)	voltage
	24	V(net@183)	voltage
	25	V(net@203)	voltage
	26	V(net@787)	voltage
	27	V(net@212)	voltage
	28	V(net@232)	voltage
	29	V(net@433)	voltage
	30	V(net@323)	voltage
	31	V(net@365)	voltage
	32	V(net@363)	voltage
	33	V(net@265)	voltage
	34	V(net@268)	voltage
	35	V(net@271)	voltage
	36	V(net@303)	voltage
	37	V(net@310)	voltage
	38	V(net@283)	voltage
	39	V(net@507)	voltage
	40	V(net@514)	voltage
	41	V(net@512)	voltage
	42	V(net@428)	voltage
	43	V(net@431)	voltage
	44	V(out1)	voltage
	45	V(net@468)	voltage
	46	V(net@442)	voltage
	47	V(net@630)	voltage
	48	V(net@575)	voltage
	49	V(net@671)	voltage
	50	V(net@718)	voltage
	51	V(net@611)	voltage
	52	V(net@602)	voltage
	53	V(net@603)	voltage
	54	V(net@604)	voltage
	55	V(net@4871)	voltage
	56	V(net@844)	voltage
	57	V(net@883)	voltage
	58	V(net@917)	voltage
	59	V(net@825)	voltage
	60	V(net@816)	voltage
	61	V(net@817)	voltage
	62	V(net@818)	voltage
	63	V(net@4711)	voltage
	64	V(net@4589)	voltage
	65	V(b2)	voltage
	66	V(net@4643)	voltage
	67	V(net@5257)	voltage
	68	V(net@4647)	voltage
	69	V(net@4667)	voltage
	70	V(net@5059)	voltage
	71	V(net@4677)	voltage
	72	V(net@4697)	voltage
	73	V(net@4861)	voltage
	74	V(net@4592)	voltage
	75	V(net@4607)	voltage
	76	V(net@4719)	voltage
	77	V(net@4766)	voltage
	78	V(net@4799)	voltage
	79	V(net@4797)	voltage
	80	V(net@4714)	voltage
	81	V(net@4717)	voltage
	82	V(out2)	voltage
	83	V(net@4754)	voltage
	84	V(net@4728)	voltage
	85	V(net@4918)	voltage
	86	V(net@4955)	voltage
	87	V(net@4989)	voltage
	88	V(net@4899)	voltage
	89	V(net@4890)	voltage
	90	V(net@4891)	voltage
	91	V(net@4892)	voltage
	92	V(net@5061)	voltage
	93	V(net@5594)	voltage
	94	V(net@5116)	voltage
	95	V(net@5153)	voltage
	96	V(net@5187)	voltage
	97	V(net@5097)	voltage
	98	V(net@5088)	voltage
	99	V(net@5089)	voltage
	100	V(net@5090)	voltage
	101	V(net@5259)	voltage
	102	V(net@5754)	voltage
	103	V(net@5314)	voltage
	104	V(net@5351)	voltage
	105	V(net@5385)	voltage
	106	V(net@5295)	voltage
	107	V(net@5286)	voltage
	108	V(net@5287)	voltage
	109	V(net@5288)	voltage
	110	V(net@6146)	voltage
	111	V(net@5949)	voltage
	112	V(net@5472)	voltage
	113	V(b3)	voltage
	114	V(net@5526)	voltage
	115	V(net@6136)	voltage
	116	V(net@5530)	voltage
	117	V(net@5550)	voltage
	118	V(net@5939)	voltage
	119	V(net@5560)	voltage
	120	V(net@5580)	voltage
	121	V(net@5744)	voltage
	122	V(net@5475)	voltage
	123	V(net@5490)	voltage
	124	V(net@5602)	voltage
	125	V(net@5649)	voltage
	126	V(net@5682)	voltage
	127	V(net@5680)	voltage
	128	V(net@5597)	voltage
	129	V(net@5600)	voltage
	130	V(out3)	voltage
	131	V(net@5637)	voltage
	132	V(net@5611)	voltage
	133	V(net@5801)	voltage
	134	V(net@5838)	voltage
	135	V(net@5870)	voltage
	136	V(net@5782)	voltage
	137	V(net@5773)	voltage
	138	V(net@5774)	voltage
	139	V(net@5775)	voltage
	140	V(net@5941)	voltage
	141	V(out4)	voltage
	142	V(net@5996)	voltage
	143	V(net@6033)	voltage
	144	V(net@6066)	voltage
	145	V(net@5977)	voltage
	146	V(net@5968)	voltage
	147	V(net@5969)	voltage
	148	V(net@5970)	voltage
	149	V(net@6138)	voltage
	150	V(out5)	voltage
	151	V(net@6193)	voltage
	152	V(net@6230)	voltage
	153	V(net@6263)	voltage
	154	V(net@6174)	voltage
	155	V(net@6165)	voltage
	156	V(net@6166)	voltage
	157	V(net@6167)	voltage
	158	V(out7)	voltage
	159	V(out6)	voltage
	160	V(vdd)	voltage
	161	V(net@337)	voltage
	162	V(net@296)	voltage
	163	V(net@487)	voltage
	164	V(net@454)	voltage
	165	V(net@590)	voltage
	166	V(net@725)	voltage
	167	V(net@593)	voltage
	168	V(net@577)	voltage
	169	V(net@778)	voltage
	170	V(net@804)	voltage
	171	V(net@924)	voltage
	172	V(net@807)	voltage
	173	V(net@791)	voltage
	174	V(net@977)	voltage
	175	V(net@4772)	voltage
	176	V(net@4740)	voltage
	177	V(net@4878)	voltage
	178	V(net@4996)	voltage
	179	V(net@4881)	voltage
	180	V(net@4865)	voltage
	181	V(net@5048)	voltage
	182	V(net@5076)	voltage
	183	V(net@5194)	voltage
	184	V(net@5079)	voltage
	185	V(net@5063)	voltage
	186	V(net@5246)	voltage
	187	V(net@5274)	voltage
	188	V(net@5392)	voltage
	189	V(net@5277)	voltage
	190	V(net@5261)	voltage
	191	V(net@5444)	voltage
	192	V(net@5655)	voltage
	193	V(net@5623)	voltage
	194	V(net@5761)	voltage
	195	V(net@5877)	voltage
	196	V(net@5764)	voltage
	197	V(net@5748)	voltage
	198	V(net@5929)	voltage
	199	V(net@5956)	voltage
	200	V(net@6073)	voltage
	201	V(net@5959)	voltage
	202	V(net@5943)	voltage
	203	V(net@6125)	voltage
	204	V(net@6153)	voltage
	205	V(net@6270)	voltage
	206	V(net@6156)	voltage
	207	V(net@6140)	voltage
	208	V(net@6322)	voltage
	209	Id(Mpmos@465)	device_current
	210	Ig(Mpmos@465)	device_current
	211	Ib(Mpmos@465)	device_current
	212	Is(Mpmos@465)	device_current
	213	Id(Mpmos@464)	device_current
	214	Ig(Mpmos@464)	device_current
	215	Ib(Mpmos@464)	device_current
	216	Is(Mpmos@464)	device_current
	217	Id(Mpmos@463)	device_current
	218	Ig(Mpmos@463)	device_current
	219	Ib(Mpmos@463)	device_current
	220	Is(Mpmos@463)	device_current
	221	Id(Mpmos@462)	device_current
	222	Ig(Mpmos@462)	device_current
	223	Ib(Mpmos@462)	device_current
	224	Is(Mpmos@462)	device_current
	225	Id(Mpmos@461)	device_current
	226	Ig(Mpmos@461)	device_current
	227	Ib(Mpmos@461)	device_current
	228	Is(Mpmos@461)	device_current
	229	Id(Mpmos@460)	device_current
	230	Ig(Mpmos@460)	device_current
	231	Ib(Mpmos@460)	device_current
	232	Is(Mpmos@460)	device_current
	233	Id(Mpmos@459)	device_current
	234	Ig(Mpmos@459)	device_current
	235	Ib(Mpmos@459)	device_current
	236	Is(Mpmos@459)	device_current
	237	Id(Mpmos@458)	device_current
	238	Ig(Mpmos@458)	device_current
	239	Ib(Mpmos@458)	device_current
	240	Is(Mpmos@458)	device_current
	241	Id(Mpmos@457)	device_current
	242	Ig(Mpmos@457)	device_current
	243	Ib(Mpmos@457)	device_current
	244	Is(Mpmos@457)	device_current
	245	Id(Mpmos@456)	device_current
	246	Ig(Mpmos@456)	device_current
	247	Ib(Mpmos@456)	device_current
	248	Is(Mpmos@456)	device_current
	249	Id(Mpmos@455)	device_current
	250	Ig(Mpmos@455)	device_current
	251	Ib(Mpmos@455)	device_current
	252	Is(Mpmos@455)	device_current
	253	Id(Mpmos@454)	device_current
	254	Ig(Mpmos@454)	device_current
	255	Ib(Mpmos@454)	device_current
	256	Is(Mpmos@454)	device_current
	257	Id(Mpmos@453)	device_current
	258	Ig(Mpmos@453)	device_current
	259	Ib(Mpmos@453)	device_current
	260	Is(Mpmos@453)	device_current
	261	Id(Mpmos@452)	device_current
	262	Ig(Mpmos@452)	device_current
	263	Ib(Mpmos@452)	device_current
	264	Is(Mpmos@452)	device_current
	265	Id(Mpmos@451)	device_current
	266	Ig(Mpmos@451)	device_current
	267	Ib(Mpmos@451)	device_current
	268	Is(Mpmos@451)	device_current
	269	Id(Mpmos@450)	device_current
	270	Ig(Mpmos@450)	device_current
	271	Ib(Mpmos@450)	device_current
	272	Is(Mpmos@450)	device_current
	273	Id(Mpmos@449)	device_current
	274	Ig(Mpmos@449)	device_current
	275	Ib(Mpmos@449)	device_current
	276	Is(Mpmos@449)	device_current
	277	Id(Mpmos@448)	device_current
	278	Ig(Mpmos@448)	device_current
	279	Ib(Mpmos@448)	device_current
	280	Is(Mpmos@448)	device_current
	281	Id(Mpmos@447)	device_current
	282	Ig(Mpmos@447)	device_current
	283	Ib(Mpmos@447)	device_current
	284	Is(Mpmos@447)	device_current
	285	Id(Mpmos@446)	device_current
	286	Ig(Mpmos@446)	device_current
	287	Ib(Mpmos@446)	device_current
	288	Is(Mpmos@446)	device_current
	289	Id(Mpmos@445)	device_current
	290	Ig(Mpmos@445)	device_current
	291	Ib(Mpmos@445)	device_current
	292	Is(Mpmos@445)	device_current
	293	Id(Mpmos@444)	device_current
	294	Ig(Mpmos@444)	device_current
	295	Ib(Mpmos@444)	device_current
	296	Is(Mpmos@444)	device_current
	297	Id(Mpmos@443)	device_current
	298	Ig(Mpmos@443)	device_current
	299	Ib(Mpmos@443)	device_current
	300	Is(Mpmos@443)	device_current
	301	Id(Mpmos@442)	device_current
	302	Ig(Mpmos@442)	device_current
	303	Ib(Mpmos@442)	device_current
	304	Is(Mpmos@442)	device_current
	305	Id(Mpmos@441)	device_current
	306	Ig(Mpmos@441)	device_current
	307	Ib(Mpmos@441)	device_current
	308	Is(Mpmos@441)	device_current
	309	Id(Mpmos@440)	device_current
	310	Ig(Mpmos@440)	device_current
	311	Ib(Mpmos@440)	device_current
	312	Is(Mpmos@440)	device_current
	313	Id(Mpmos@439)	device_current
	314	Ig(Mpmos@439)	device_current
	315	Ib(Mpmos@439)	device_current
	316	Is(Mpmos@439)	device_current
	317	Id(Mpmos@438)	device_current
	318	Ig(Mpmos@438)	device_current
	319	Ib(Mpmos@438)	device_current
	320	Is(Mpmos@438)	device_current
	321	Id(Mpmos@437)	device_current
	322	Ig(Mpmos@437)	device_current
	323	Ib(Mpmos@437)	device_current
	324	Is(Mpmos@437)	device_current
	325	Id(Mpmos@436)	device_current
	326	Ig(Mpmos@436)	device_current
	327	Ib(Mpmos@436)	device_current
	328	Is(Mpmos@436)	device_current
	329	Id(Mpmos@435)	device_current
	330	Ig(Mpmos@435)	device_current
	331	Ib(Mpmos@435)	device_current
	332	Is(Mpmos@435)	device_current
	333	Id(Mpmos@434)	device_current
	334	Ig(Mpmos@434)	device_current
	335	Ib(Mpmos@434)	device_current
	336	Is(Mpmos@434)	device_current
	337	Id(Mpmos@433)	device_current
	338	Ig(Mpmos@433)	device_current
	339	Ib(Mpmos@433)	device_current
	340	Is(Mpmos@433)	device_current
	341	Id(Mpmos@432)	device_current
	342	Ig(Mpmos@432)	device_current
	343	Ib(Mpmos@432)	device_current
	344	Is(Mpmos@432)	device_current
	345	Id(Mpmos@431)	device_current
	346	Ig(Mpmos@431)	device_current
	347	Ib(Mpmos@431)	device_current
	348	Is(Mpmos@431)	device_current
	349	Id(Mpmos@430)	device_current
	350	Ig(Mpmos@430)	device_current
	351	Ib(Mpmos@430)	device_current
	352	Is(Mpmos@430)	device_current
	353	Id(Mpmos@429)	device_current
	354	Ig(Mpmos@429)	device_current
	355	Ib(Mpmos@429)	device_current
	356	Is(Mpmos@429)	device_current
	357	Id(Mpmos@428)	device_current
	358	Ig(Mpmos@428)	device_current
	359	Ib(Mpmos@428)	device_current
	360	Is(Mpmos@428)	device_current
	361	Id(Mpmos@427)	device_current
	362	Ig(Mpmos@427)	device_current
	363	Ib(Mpmos@427)	device_current
	364	Is(Mpmos@427)	device_current
	365	Id(Mpmos@426)	device_current
	366	Ig(Mpmos@426)	device_current
	367	Ib(Mpmos@426)	device_current
	368	Is(Mpmos@426)	device_current
	369	Id(Mpmos@425)	device_current
	370	Ig(Mpmos@425)	device_current
	371	Ib(Mpmos@425)	device_current
	372	Is(Mpmos@425)	device_current
	373	Id(Mpmos@424)	device_current
	374	Ig(Mpmos@424)	device_current
	375	Ib(Mpmos@424)	device_current
	376	Is(Mpmos@424)	device_current
	377	Id(Mpmos@423)	device_current
	378	Ig(Mpmos@423)	device_current
	379	Ib(Mpmos@423)	device_current
	380	Is(Mpmos@423)	device_current
	381	Id(Mpmos@422)	device_current
	382	Ig(Mpmos@422)	device_current
	383	Ib(Mpmos@422)	device_current
	384	Is(Mpmos@422)	device_current
	385	Id(Mpmos@421)	device_current
	386	Ig(Mpmos@421)	device_current
	387	Ib(Mpmos@421)	device_current
	388	Is(Mpmos@421)	device_current
	389	Id(Mpmos@420)	device_current
	390	Ig(Mpmos@420)	device_current
	391	Ib(Mpmos@420)	device_current
	392	Is(Mpmos@420)	device_current
	393	Id(Mpmos@419)	device_current
	394	Ig(Mpmos@419)	device_current
	395	Ib(Mpmos@419)	device_current
	396	Is(Mpmos@419)	device_current
	397	Id(Mpmos@418)	device_current
	398	Ig(Mpmos@418)	device_current
	399	Ib(Mpmos@418)	device_current
	400	Is(Mpmos@418)	device_current
	401	Id(Mpmos@417)	device_current
	402	Ig(Mpmos@417)	device_current
	403	Ib(Mpmos@417)	device_current
	404	Is(Mpmos@417)	device_current
	405	Id(Mpmos@416)	device_current
	406	Ig(Mpmos@416)	device_current
	407	Ib(Mpmos@416)	device_current
	408	Is(Mpmos@416)	device_current
	409	Id(Mpmos@415)	device_current
	410	Ig(Mpmos@415)	device_current
	411	Ib(Mpmos@415)	device_current
	412	Is(Mpmos@415)	device_current
	413	Id(Mpmos@414)	device_current
	414	Ig(Mpmos@414)	device_current
	415	Ib(Mpmos@414)	device_current
	416	Is(Mpmos@414)	device_current
	417	Id(Mpmos@413)	device_current
	418	Ig(Mpmos@413)	device_current
	419	Ib(Mpmos@413)	device_current
	420	Is(Mpmos@413)	device_current
	421	Id(Mpmos@412)	device_current
	422	Ig(Mpmos@412)	device_current
	423	Ib(Mpmos@412)	device_current
	424	Is(Mpmos@412)	device_current
	425	Id(Mpmos@411)	device_current
	426	Ig(Mpmos@411)	device_current
	427	Ib(Mpmos@411)	device_current
	428	Is(Mpmos@411)	device_current
	429	Id(Mpmos@410)	device_current
	430	Ig(Mpmos@410)	device_current
	431	Ib(Mpmos@410)	device_current
	432	Is(Mpmos@410)	device_current
	433	Id(Mpmos@409)	device_current
	434	Ig(Mpmos@409)	device_current
	435	Ib(Mpmos@409)	device_current
	436	Is(Mpmos@409)	device_current
	437	Id(Mpmos@408)	device_current
	438	Ig(Mpmos@408)	device_current
	439	Ib(Mpmos@408)	device_current
	440	Is(Mpmos@408)	device_current
	441	Id(Mpmos@407)	device_current
	442	Ig(Mpmos@407)	device_current
	443	Ib(Mpmos@407)	device_current
	444	Is(Mpmos@407)	device_current
	445	Id(Mpmos@406)	device_current
	446	Ig(Mpmos@406)	device_current
	447	Ib(Mpmos@406)	device_current
	448	Is(Mpmos@406)	device_current
	449	Id(Mpmos@405)	device_current
	450	Ig(Mpmos@405)	device_current
	451	Ib(Mpmos@405)	device_current
	452	Is(Mpmos@405)	device_current
	453	Id(Mpmos@404)	device_current
	454	Ig(Mpmos@404)	device_current
	455	Ib(Mpmos@404)	device_current
	456	Is(Mpmos@404)	device_current
	457	Id(Mpmos@403)	device_current
	458	Ig(Mpmos@403)	device_current
	459	Ib(Mpmos@403)	device_current
	460	Is(Mpmos@403)	device_current
	461	Id(Mpmos@402)	device_current
	462	Ig(Mpmos@402)	device_current
	463	Ib(Mpmos@402)	device_current
	464	Is(Mpmos@402)	device_current
	465	Id(Mpmos@401)	device_current
	466	Ig(Mpmos@401)	device_current
	467	Ib(Mpmos@401)	device_current
	468	Is(Mpmos@401)	device_current
	469	Id(Mpmos@400)	device_current
	470	Ig(Mpmos@400)	device_current
	471	Ib(Mpmos@400)	device_current
	472	Is(Mpmos@400)	device_current
	473	Id(Mpmos@399)	device_current
	474	Ig(Mpmos@399)	device_current
	475	Ib(Mpmos@399)	device_current
	476	Is(Mpmos@399)	device_current
	477	Id(Mpmos@398)	device_current
	478	Ig(Mpmos@398)	device_current
	479	Ib(Mpmos@398)	device_current
	480	Is(Mpmos@398)	device_current
	481	Id(Mpmos@397)	device_current
	482	Ig(Mpmos@397)	device_current
	483	Ib(Mpmos@397)	device_current
	484	Is(Mpmos@397)	device_current
	485	Id(Mpmos@396)	device_current
	486	Ig(Mpmos@396)	device_current
	487	Ib(Mpmos@396)	device_current
	488	Is(Mpmos@396)	device_current
	489	Id(Mpmos@395)	device_current
	490	Ig(Mpmos@395)	device_current
	491	Ib(Mpmos@395)	device_current
	492	Is(Mpmos@395)	device_current
	493	Id(Mpmos@394)	device_current
	494	Ig(Mpmos@394)	device_current
	495	Ib(Mpmos@394)	device_current
	496	Is(Mpmos@394)	device_current
	497	Id(Mpmos@393)	device_current
	498	Ig(Mpmos@393)	device_current
	499	Ib(Mpmos@393)	device_current
	500	Is(Mpmos@393)	device_current
	501	Id(Mpmos@392)	device_current
	502	Ig(Mpmos@392)	device_current
	503	Ib(Mpmos@392)	device_current
	504	Is(Mpmos@392)	device_current
	505	Id(Mpmos@391)	device_current
	506	Ig(Mpmos@391)	device_current
	507	Ib(Mpmos@391)	device_current
	508	Is(Mpmos@391)	device_current
	509	Id(Mpmos@390)	device_current
	510	Ig(Mpmos@390)	device_current
	511	Ib(Mpmos@390)	device_current
	512	Is(Mpmos@390)	device_current
	513	Id(Mpmos@389)	device_current
	514	Ig(Mpmos@389)	device_current
	515	Ib(Mpmos@389)	device_current
	516	Is(Mpmos@389)	device_current
	517	Id(Mpmos@388)	device_current
	518	Ig(Mpmos@388)	device_current
	519	Ib(Mpmos@388)	device_current
	520	Is(Mpmos@388)	device_current
	521	Id(Mpmos@387)	device_current
	522	Ig(Mpmos@387)	device_current
	523	Ib(Mpmos@387)	device_current
	524	Is(Mpmos@387)	device_current
	525	Id(Mpmos@386)	device_current
	526	Ig(Mpmos@386)	device_current
	527	Ib(Mpmos@386)	device_current
	528	Is(Mpmos@386)	device_current
	529	Id(Mpmos@385)	device_current
	530	Ig(Mpmos@385)	device_current
	531	Ib(Mpmos@385)	device_current
	532	Is(Mpmos@385)	device_current
	533	Id(Mpmos@384)	device_current
	534	Ig(Mpmos@384)	device_current
	535	Ib(Mpmos@384)	device_current
	536	Is(Mpmos@384)	device_current
	537	Id(Mpmos@383)	device_current
	538	Ig(Mpmos@383)	device_current
	539	Ib(Mpmos@383)	device_current
	540	Is(Mpmos@383)	device_current
	541	Id(Mpmos@382)	device_current
	542	Ig(Mpmos@382)	device_current
	543	Ib(Mpmos@382)	device_current
	544	Is(Mpmos@382)	device_current
	545	Id(Mpmos@381)	device_current
	546	Ig(Mpmos@381)	device_current
	547	Ib(Mpmos@381)	device_current
	548	Is(Mpmos@381)	device_current
	549	Id(Mpmos@380)	device_current
	550	Ig(Mpmos@380)	device_current
	551	Ib(Mpmos@380)	device_current
	552	Is(Mpmos@380)	device_current
	553	Id(Mpmos@379)	device_current
	554	Ig(Mpmos@379)	device_current
	555	Ib(Mpmos@379)	device_current
	556	Is(Mpmos@379)	device_current
	557	Id(Mpmos@378)	device_current
	558	Ig(Mpmos@378)	device_current
	559	Ib(Mpmos@378)	device_current
	560	Is(Mpmos@378)	device_current
	561	Id(Mpmos@377)	device_current
	562	Ig(Mpmos@377)	device_current
	563	Ib(Mpmos@377)	device_current
	564	Is(Mpmos@377)	device_current
	565	Id(Mpmos@376)	device_current
	566	Ig(Mpmos@376)	device_current
	567	Ib(Mpmos@376)	device_current
	568	Is(Mpmos@376)	device_current
	569	Id(Mpmos@375)	device_current
	570	Ig(Mpmos@375)	device_current
	571	Ib(Mpmos@375)	device_current
	572	Is(Mpmos@375)	device_current
	573	Id(Mpmos@374)	device_current
	574	Ig(Mpmos@374)	device_current
	575	Ib(Mpmos@374)	device_current
	576	Is(Mpmos@374)	device_current
	577	Id(Mpmos@373)	device_current
	578	Ig(Mpmos@373)	device_current
	579	Ib(Mpmos@373)	device_current
	580	Is(Mpmos@373)	device_current
	581	Id(Mpmos@372)	device_current
	582	Ig(Mpmos@372)	device_current
	583	Ib(Mpmos@372)	device_current
	584	Is(Mpmos@372)	device_current
	585	Id(Mpmos@371)	device_current
	586	Ig(Mpmos@371)	device_current
	587	Ib(Mpmos@371)	device_current
	588	Is(Mpmos@371)	device_current
	589	Id(Mpmos@370)	device_current
	590	Ig(Mpmos@370)	device_current
	591	Ib(Mpmos@370)	device_current
	592	Is(Mpmos@370)	device_current
	593	Id(Mpmos@369)	device_current
	594	Ig(Mpmos@369)	device_current
	595	Ib(Mpmos@369)	device_current
	596	Is(Mpmos@369)	device_current
	597	Id(Mpmos@368)	device_current
	598	Ig(Mpmos@368)	device_current
	599	Ib(Mpmos@368)	device_current
	600	Is(Mpmos@368)	device_current
	601	Id(Mpmos@367)	device_current
	602	Ig(Mpmos@367)	device_current
	603	Ib(Mpmos@367)	device_current
	604	Is(Mpmos@367)	device_current
	605	Id(Mpmos@366)	device_current
	606	Ig(Mpmos@366)	device_current
	607	Ib(Mpmos@366)	device_current
	608	Is(Mpmos@366)	device_current
	609	Id(Mpmos@365)	device_current
	610	Ig(Mpmos@365)	device_current
	611	Ib(Mpmos@365)	device_current
	612	Is(Mpmos@365)	device_current
	613	Id(Mpmos@364)	device_current
	614	Ig(Mpmos@364)	device_current
	615	Ib(Mpmos@364)	device_current
	616	Is(Mpmos@364)	device_current
	617	Id(Mpmos@363)	device_current
	618	Ig(Mpmos@363)	device_current
	619	Ib(Mpmos@363)	device_current
	620	Is(Mpmos@363)	device_current
	621	Id(Mpmos@362)	device_current
	622	Ig(Mpmos@362)	device_current
	623	Ib(Mpmos@362)	device_current
	624	Is(Mpmos@362)	device_current
	625	Id(Mpmos@361)	device_current
	626	Ig(Mpmos@361)	device_current
	627	Ib(Mpmos@361)	device_current
	628	Is(Mpmos@361)	device_current
	629	Id(Mpmos@360)	device_current
	630	Ig(Mpmos@360)	device_current
	631	Ib(Mpmos@360)	device_current
	632	Is(Mpmos@360)	device_current
	633	Id(Mpmos@359)	device_current
	634	Ig(Mpmos@359)	device_current
	635	Ib(Mpmos@359)	device_current
	636	Is(Mpmos@359)	device_current
	637	Id(Mpmos@358)	device_current
	638	Ig(Mpmos@358)	device_current
	639	Ib(Mpmos@358)	device_current
	640	Is(Mpmos@358)	device_current
	641	Id(Mpmos@357)	device_current
	642	Ig(Mpmos@357)	device_current
	643	Ib(Mpmos@357)	device_current
	644	Is(Mpmos@357)	device_current
	645	Id(Mpmos@356)	device_current
	646	Ig(Mpmos@356)	device_current
	647	Ib(Mpmos@356)	device_current
	648	Is(Mpmos@356)	device_current
	649	Id(Mpmos@355)	device_current
	650	Ig(Mpmos@355)	device_current
	651	Ib(Mpmos@355)	device_current
	652	Is(Mpmos@355)	device_current
	653	Id(Mpmos@354)	device_current
	654	Ig(Mpmos@354)	device_current
	655	Ib(Mpmos@354)	device_current
	656	Is(Mpmos@354)	device_current
	657	Id(Mpmos@353)	device_current
	658	Ig(Mpmos@353)	device_current
	659	Ib(Mpmos@353)	device_current
	660	Is(Mpmos@353)	device_current
	661	Id(Mpmos@352)	device_current
	662	Ig(Mpmos@352)	device_current
	663	Ib(Mpmos@352)	device_current
	664	Is(Mpmos@352)	device_current
	665	Id(Mpmos@351)	device_current
	666	Ig(Mpmos@351)	device_current
	667	Ib(Mpmos@351)	device_current
	668	Is(Mpmos@351)	device_current
	669	Id(Mpmos@350)	device_current
	670	Ig(Mpmos@350)	device_current
	671	Ib(Mpmos@350)	device_current
	672	Is(Mpmos@350)	device_current
	673	Id(Mpmos@349)	device_current
	674	Ig(Mpmos@349)	device_current
	675	Ib(Mpmos@349)	device_current
	676	Is(Mpmos@349)	device_current
	677	Id(Mpmos@348)	device_current
	678	Ig(Mpmos@348)	device_current
	679	Ib(Mpmos@348)	device_current
	680	Is(Mpmos@348)	device_current
	681	Id(Mpmos@347)	device_current
	682	Ig(Mpmos@347)	device_current
	683	Ib(Mpmos@347)	device_current
	684	Is(Mpmos@347)	device_current
	685	Id(Mpmos@346)	device_current
	686	Ig(Mpmos@346)	device_current
	687	Ib(Mpmos@346)	device_current
	688	Is(Mpmos@346)	device_current
	689	Id(Mpmos@345)	device_current
	690	Ig(Mpmos@345)	device_current
	691	Ib(Mpmos@345)	device_current
	692	Is(Mpmos@345)	device_current
	693	Id(Mpmos@344)	device_current
	694	Ig(Mpmos@344)	device_current
	695	Ib(Mpmos@344)	device_current
	696	Is(Mpmos@344)	device_current
	697	Id(Mpmos@343)	device_current
	698	Ig(Mpmos@343)	device_current
	699	Ib(Mpmos@343)	device_current
	700	Is(Mpmos@343)	device_current
	701	Id(Mpmos@342)	device_current
	702	Ig(Mpmos@342)	device_current
	703	Ib(Mpmos@342)	device_current
	704	Is(Mpmos@342)	device_current
	705	Id(Mpmos@341)	device_current
	706	Ig(Mpmos@341)	device_current
	707	Ib(Mpmos@341)	device_current
	708	Is(Mpmos@341)	device_current
	709	Id(Mpmos@340)	device_current
	710	Ig(Mpmos@340)	device_current
	711	Ib(Mpmos@340)	device_current
	712	Is(Mpmos@340)	device_current
	713	Id(Mpmos@339)	device_current
	714	Ig(Mpmos@339)	device_current
	715	Ib(Mpmos@339)	device_current
	716	Is(Mpmos@339)	device_current
	717	Id(Mpmos@338)	device_current
	718	Ig(Mpmos@338)	device_current
	719	Ib(Mpmos@338)	device_current
	720	Is(Mpmos@338)	device_current
	721	Id(Mpmos@71)	device_current
	722	Ig(Mpmos@71)	device_current
	723	Ib(Mpmos@71)	device_current
	724	Is(Mpmos@71)	device_current
	725	Id(Mpmos@70)	device_current
	726	Ig(Mpmos@70)	device_current
	727	Ib(Mpmos@70)	device_current
	728	Is(Mpmos@70)	device_current
	729	Id(Mpmos@69)	device_current
	730	Ig(Mpmos@69)	device_current
	731	Ib(Mpmos@69)	device_current
	732	Is(Mpmos@69)	device_current
	733	Id(Mpmos@68)	device_current
	734	Ig(Mpmos@68)	device_current
	735	Ib(Mpmos@68)	device_current
	736	Is(Mpmos@68)	device_current
	737	Id(Mpmos@67)	device_current
	738	Ig(Mpmos@67)	device_current
	739	Ib(Mpmos@67)	device_current
	740	Is(Mpmos@67)	device_current
	741	Id(Mpmos@66)	device_current
	742	Ig(Mpmos@66)	device_current
	743	Ib(Mpmos@66)	device_current
	744	Is(Mpmos@66)	device_current
	745	Id(Mpmos@65)	device_current
	746	Ig(Mpmos@65)	device_current
	747	Ib(Mpmos@65)	device_current
	748	Is(Mpmos@65)	device_current
	749	Id(Mpmos@64)	device_current
	750	Ig(Mpmos@64)	device_current
	751	Ib(Mpmos@64)	device_current
	752	Is(Mpmos@64)	device_current
	753	Id(Mpmos@63)	device_current
	754	Ig(Mpmos@63)	device_current
	755	Ib(Mpmos@63)	device_current
	756	Is(Mpmos@63)	device_current
	757	Id(Mpmos@62)	device_current
	758	Ig(Mpmos@62)	device_current
	759	Ib(Mpmos@62)	device_current
	760	Is(Mpmos@62)	device_current
	761	Id(Mpmos@61)	device_current
	762	Ig(Mpmos@61)	device_current
	763	Ib(Mpmos@61)	device_current
	764	Is(Mpmos@61)	device_current
	765	Id(Mpmos@60)	device_current
	766	Ig(Mpmos@60)	device_current
	767	Ib(Mpmos@60)	device_current
	768	Is(Mpmos@60)	device_current
	769	Id(Mpmos@59)	device_current
	770	Ig(Mpmos@59)	device_current
	771	Ib(Mpmos@59)	device_current
	772	Is(Mpmos@59)	device_current
	773	Id(Mpmos@58)	device_current
	774	Ig(Mpmos@58)	device_current
	775	Ib(Mpmos@58)	device_current
	776	Is(Mpmos@58)	device_current
	777	Id(Mpmos@57)	device_current
	778	Ig(Mpmos@57)	device_current
	779	Ib(Mpmos@57)	device_current
	780	Is(Mpmos@57)	device_current
	781	Id(Mpmos@56)	device_current
	782	Ig(Mpmos@56)	device_current
	783	Ib(Mpmos@56)	device_current
	784	Is(Mpmos@56)	device_current
	785	Id(Mpmos@55)	device_current
	786	Ig(Mpmos@55)	device_current
	787	Ib(Mpmos@55)	device_current
	788	Is(Mpmos@55)	device_current
	789	Id(Mpmos@54)	device_current
	790	Ig(Mpmos@54)	device_current
	791	Ib(Mpmos@54)	device_current
	792	Is(Mpmos@54)	device_current
	793	Id(Mpmos@53)	device_current
	794	Ig(Mpmos@53)	device_current
	795	Ib(Mpmos@53)	device_current
	796	Is(Mpmos@53)	device_current
	797	Id(Mpmos@52)	device_current
	798	Ig(Mpmos@52)	device_current
	799	Ib(Mpmos@52)	device_current
	800	Is(Mpmos@52)	device_current
	801	Id(Mpmos@51)	device_current
	802	Ig(Mpmos@51)	device_current
	803	Ib(Mpmos@51)	device_current
	804	Is(Mpmos@51)	device_current
	805	Id(Mpmos@50)	device_current
	806	Ig(Mpmos@50)	device_current
	807	Ib(Mpmos@50)	device_current
	808	Is(Mpmos@50)	device_current
	809	Id(Mpmos@49)	device_current
	810	Ig(Mpmos@49)	device_current
	811	Ib(Mpmos@49)	device_current
	812	Is(Mpmos@49)	device_current
	813	Id(Mpmos@48)	device_current
	814	Ig(Mpmos@48)	device_current
	815	Ib(Mpmos@48)	device_current
	816	Is(Mpmos@48)	device_current
	817	Id(Mpmos@47)	device_current
	818	Ig(Mpmos@47)	device_current
	819	Ib(Mpmos@47)	device_current
	820	Is(Mpmos@47)	device_current
	821	Id(Mpmos@46)	device_current
	822	Ig(Mpmos@46)	device_current
	823	Ib(Mpmos@46)	device_current
	824	Is(Mpmos@46)	device_current
	825	Id(Mpmos@45)	device_current
	826	Ig(Mpmos@45)	device_current
	827	Ib(Mpmos@45)	device_current
	828	Is(Mpmos@45)	device_current
	829	Id(Mpmos@44)	device_current
	830	Ig(Mpmos@44)	device_current
	831	Ib(Mpmos@44)	device_current
	832	Is(Mpmos@44)	device_current
	833	Id(Mpmos@43)	device_current
	834	Ig(Mpmos@43)	device_current
	835	Ib(Mpmos@43)	device_current
	836	Is(Mpmos@43)	device_current
	837	Id(Mpmos@42)	device_current
	838	Ig(Mpmos@42)	device_current
	839	Ib(Mpmos@42)	device_current
	840	Is(Mpmos@42)	device_current
	841	Id(Mpmos@41)	device_current
	842	Ig(Mpmos@41)	device_current
	843	Ib(Mpmos@41)	device_current
	844	Is(Mpmos@41)	device_current
	845	Id(Mpmos@40)	device_current
	846	Ig(Mpmos@40)	device_current
	847	Ib(Mpmos@40)	device_current
	848	Is(Mpmos@40)	device_current
	849	Id(Mpmos@39)	device_current
	850	Ig(Mpmos@39)	device_current
	851	Ib(Mpmos@39)	device_current
	852	Is(Mpmos@39)	device_current
	853	Id(Mpmos@38)	device_current
	854	Ig(Mpmos@38)	device_current
	855	Ib(Mpmos@38)	device_current
	856	Is(Mpmos@38)	device_current
	857	Id(Mpmos@37)	device_current
	858	Ig(Mpmos@37)	device_current
	859	Ib(Mpmos@37)	device_current
	860	Is(Mpmos@37)	device_current
	861	Id(Mpmos@36)	device_current
	862	Ig(Mpmos@36)	device_current
	863	Ib(Mpmos@36)	device_current
	864	Is(Mpmos@36)	device_current
	865	Id(Mpmos@35)	device_current
	866	Ig(Mpmos@35)	device_current
	867	Ib(Mpmos@35)	device_current
	868	Is(Mpmos@35)	device_current
	869	Id(Mpmos@34)	device_current
	870	Ig(Mpmos@34)	device_current
	871	Ib(Mpmos@34)	device_current
	872	Is(Mpmos@34)	device_current
	873	Id(Mpmos@33)	device_current
	874	Ig(Mpmos@33)	device_current
	875	Ib(Mpmos@33)	device_current
	876	Is(Mpmos@33)	device_current
	877	Id(Mpmos@32)	device_current
	878	Ig(Mpmos@32)	device_current
	879	Ib(Mpmos@32)	device_current
	880	Is(Mpmos@32)	device_current
	881	Id(Mpmos@31)	device_current
	882	Ig(Mpmos@31)	device_current
	883	Ib(Mpmos@31)	device_current
	884	Is(Mpmos@31)	device_current
	885	Id(Mpmos@30)	device_current
	886	Ig(Mpmos@30)	device_current
	887	Ib(Mpmos@30)	device_current
	888	Is(Mpmos@30)	device_current
	889	Id(Mpmos@29)	device_current
	890	Ig(Mpmos@29)	device_current
	891	Ib(Mpmos@29)	device_current
	892	Is(Mpmos@29)	device_current
	893	Id(Mpmos@28)	device_current
	894	Ig(Mpmos@28)	device_current
	895	Ib(Mpmos@28)	device_current
	896	Is(Mpmos@28)	device_current
	897	Id(Mpmos@27)	device_current
	898	Ig(Mpmos@27)	device_current
	899	Ib(Mpmos@27)	device_current
	900	Is(Mpmos@27)	device_current
	901	Id(Mpmos@26)	device_current
	902	Ig(Mpmos@26)	device_current
	903	Ib(Mpmos@26)	device_current
	904	Is(Mpmos@26)	device_current
	905	Id(Mpmos@25)	device_current
	906	Ig(Mpmos@25)	device_current
	907	Ib(Mpmos@25)	device_current
	908	Is(Mpmos@25)	device_current
	909	Id(Mpmos@24)	device_current
	910	Ig(Mpmos@24)	device_current
	911	Ib(Mpmos@24)	device_current
	912	Is(Mpmos@24)	device_current
	913	Id(Mpmos@23)	device_current
	914	Ig(Mpmos@23)	device_current
	915	Ib(Mpmos@23)	device_current
	916	Is(Mpmos@23)	device_current
	917	Id(Mpmos@22)	device_current
	918	Ig(Mpmos@22)	device_current
	919	Ib(Mpmos@22)	device_current
	920	Is(Mpmos@22)	device_current
	921	Id(Mpmos@21)	device_current
	922	Ig(Mpmos@21)	device_current
	923	Ib(Mpmos@21)	device_current
	924	Is(Mpmos@21)	device_current
	925	Id(Mpmos@20)	device_current
	926	Ig(Mpmos@20)	device_current
	927	Ib(Mpmos@20)	device_current
	928	Is(Mpmos@20)	device_current
	929	Id(Mpmos@19)	device_current
	930	Ig(Mpmos@19)	device_current
	931	Ib(Mpmos@19)	device_current
	932	Is(Mpmos@19)	device_current
	933	Id(Mpmos@18)	device_current
	934	Ig(Mpmos@18)	device_current
	935	Ib(Mpmos@18)	device_current
	936	Is(Mpmos@18)	device_current
	937	Id(Mpmos@17)	device_current
	938	Ig(Mpmos@17)	device_current
	939	Ib(Mpmos@17)	device_current
	940	Is(Mpmos@17)	device_current
	941	Id(Mpmos@16)	device_current
	942	Ig(Mpmos@16)	device_current